8    
4    

1    
  0.0032509500094419   0.0088841312631179   0.0032409158791613
  -0.0059253800   -0.0417479300   -0.0048618600
   0.0008467900    0.0048451500    0.0009968400
   0.0004779600    0.0083912100    0.0000808600
   0.0042213400   -0.0008455900    0.0045881400
  -0.0008450400    0.0434358500   -0.0009875500
   0.0000151900   -0.0136314900    0.0000184600
   0.0002732400    0.0055469900   -0.0007466000
   0.0009358900   -0.0059942000    0.0009117100

1    
 -0.0032509500094419  -0.0088841312631179  -0.0032409158791613
   0.0059689000    0.0476874600    0.0049315100
  -0.0008210500   -0.0093320400   -0.0009916500
  -0.0004781600   -0.0038370000   -0.0000800900
  -0.0043269900   -0.0036689600   -0.0046856800
   0.0009223100   -0.0268802500    0.0010572800
  -0.0000093700   -0.0044726800   -0.0000144600
  -0.0002772300    0.0126247500    0.0007264900
  -0.0009784200   -0.0121212800   -0.0009434000

5    
  0.0032509500094419   0.0088841312631179   0.0032409158791613
  -0.0009067500    0.0382120900   -0.0010462900
   0.0000149100   -0.0068335400    0.0000221000
   0.0002706000   -0.0012631900   -0.0007176300
   0.0009939600    0.0008054100    0.0009743000
  -0.0004060900   -0.0384516600   -0.0014738000
  -0.0006078300   -0.0014512900    0.0012683800
  -0.0002312900    0.0160647100    0.0000307000
   0.0008724800   -0.0070825300    0.0009422500

5    
 -0.0032509500094419  -0.0088841312631179  -0.0032409158791613
   0.0008607200   -0.0321017800    0.0009964100
  -0.0000087800    0.0023448300   -0.0000147100
  -0.0002811800    0.0058115900    0.0007529700
  -0.0009193300   -0.0052925700   -0.0008823800
   0.0003218400    0.0550057100    0.0014159800
   0.0006380100   -0.0167744700   -0.0013262600
   0.0002328200    0.0020104500   -0.0000301700
  -0.0008441200   -0.0110037700   -0.0009118200
