288  
4    

1    
  0.0067400330669704   0.0030698379607401   0.0067192298034034
  -0.0241519300   -0.0109040900   -0.0235896400
   0.0008865700    0.0041603400   -0.0007484700
   0.0001181500    0.0041615900   -0.0002074800
   0.0001524800    0.0041760900   -0.0001014700
   0.0001099000    0.0041798300   -0.0002062300
   0.0008334400    0.0042286300   -0.0007549400
  -0.0008503900    0.0039809900    0.0013263300
   0.0047980200    0.0027237500    0.0048092700
   0.0005165400    0.0040726100    0.0001126500
   0.0001330200    0.0041743500   -0.0000617200
   0.0001418900    0.0042184500   -0.0001945200
  -0.0002228500    0.0041510600    0.0004002700
  -0.0002282900    0.0041597700    0.0001570100
   0.0001560300    0.0040023500    0.0006453100
   0.0005244300    0.0040056800    0.0005534300
   0.0001523800    0.0041506900    0.0000660700
  -0.0000370200    0.0041405800    0.0000489400
  -0.0002446100    0.0040867900    0.0002816600
  -0.0000968600    0.0041753300    0.0001796600
  -0.0000862800    0.0041755000    0.0001707500
   0.0000930500    0.0041236200    0.0001890800
   0.0001779600    0.0041695400    0.0001602400
   0.0000535700    0.0042085300    0.0001873500
  -0.0000866500    0.0041748700    0.0001701700
  -0.0002270400    0.0041837300    0.0001467900
  -0.0002043400    0.0042398400    0.0001737400
   0.0000216700    0.0041647700   -0.0000195900
   0.0001512100    0.0041868800    0.0000499200
   0.0004589300    0.0042980300    0.0004775100
   0.0001165900    0.0043246600    0.0005337700
  -0.0008531800    0.0043166400    0.0011505400
   0.0004016400    0.0041767100   -0.0002371600
   0.0002089100    0.0041168100   -0.0002153200
   0.0001325500    0.0041752200   -0.0000615700
   0.0004463200    0.0042630900    0.0000922500
   0.0041092500    0.0055930700    0.0041091500
  -0.0002982500   -0.0029729700    0.0002935000
   0.0004935200   -0.0034263700    0.0001178000
   0.0002201400   -0.0041362200   -0.0000543800
   0.0001292400   -0.0041781800   -0.0000540600
   0.0001232900   -0.0041718100   -0.0001338600
  -0.0000571600   -0.0041721900   -0.0000979800
  -0.0003726600   -0.0041360100    0.0003279200
   0.0000861600   -0.0042574100    0.0001793400
   0.0002831600   -0.0040591300    0.0001397700
   0.0001569200   -0.0041583000    0.0000012400
   0.0000526900   -0.0041686800   -0.0000415500
  -0.0000442000   -0.0041309500   -0.0000106000
  -0.0000631400   -0.0041823800    0.0001452500
  -0.0000461000   -0.0041693600    0.0001811500
   0.0001136000   -0.0042010900    0.0001630200
   0.0001482900   -0.0041481400    0.0001021100
   0.0000398600   -0.0041687800    0.0000735000
  -0.0001048700   -0.0041722000    0.0001233800
  -0.0000627400   -0.0041688900    0.0001516000
  -0.0001022600   -0.0041769700    0.0001205200
   0.0000248100   -0.0041762700    0.0000865300
   0.0001476200   -0.0041830200    0.0000864900
   0.0001267500   -0.0041442400    0.0001733400
  -0.0000471800   -0.0041798400    0.0001771200
  -0.0003671800   -0.0042201100    0.0002899000
  -0.0001034000   -0.0041933000    0.0000209900
   0.0001025300   -0.0041326400   -0.0000741700
   0.0001563700   -0.0041792000   -0.0000075600
   0.0002320700   -0.0042420800    0.0001067400
   0.0001401500   -0.0040684200    0.0002065900
  -0.0002948500   -0.0037803600   -0.0000641700
   0.0002819400   -0.0039109300   -0.0003184700
   0.0001397600   -0.0041641400   -0.0001472100
   0.0001289900   -0.0041743700   -0.0000519700
   0.0002030500   -0.0041997600   -0.0000658500
   0.0001572400   -0.0046558800   -0.0001017600
  -0.0004092800    0.0050818300   -0.0001976400
   0.0000965100    0.0042666600   -0.0002593900
   0.0001247700    0.0041844200   -0.0000549400
   0.0001289000    0.0041746600   -0.0000545800
   0.0001642400    0.0041166100   -0.0002563800
  -0.0001718400    0.0045552100   -0.0001958100
  -0.0000740400    0.0047361100   -0.0000944600
   0.0001822200    0.0042446400    0.0001148400
   0.0001467200    0.0041997300   -0.0000409700
   0.0001238900    0.0041843000   -0.0000699600
   0.0000356600    0.0041541700   -0.0000745800
  -0.0000700600    0.0043964300   -0.0002441700
  -0.0000810900    0.0042309600    0.0001249300
   0.0000063800    0.0042689400    0.0000912100
   0.0002351600    0.0041848500    0.0001249000
   0.0001303000    0.0041705400    0.0000124600
  -0.0000282500    0.0041662900    0.0000104700
  -0.0001320200    0.0042098800    0.0000640100
  -0.0000674700    0.0041909000    0.0001221000
  -0.0000061900    0.0042087600    0.0001051100
   0.0000889700    0.0042150900    0.0000995100
   0.0001195000    0.0041479300    0.0000996300
   0.0000154300    0.0041603500    0.0001046400
  -0.0000584300    0.0041705700    0.0001219100
  -0.0001404800    0.0041595400    0.0000978200
  -0.0000742100    0.0042039800    0.0000406200
   0.0001226800    0.0042194800   -0.0000020400
   0.0002399600    0.0042048300    0.0001090300
   0.0000523400    0.0041031800    0.0001215300
  -0.0000705900    0.0041384900    0.0001582500
  -0.0002243100    0.0041965400    0.0000036400
  -0.0000064400    0.0042760500   -0.0000873900
   0.0001170700    0.0041861900   -0.0000636600
   0.0001529900    0.0041710800   -0.0000336900
   0.0002216400    0.0041855900    0.0001004500
   0.0000822100    0.0038621100    0.0001552000
   0.0017332200   -0.0067172700    0.0017702700
   0.0003021200   -0.0042920800   -0.0003267700
   0.0002030300   -0.0041872600   -0.0000750000
   0.0001668400   -0.0041836900   -0.0001117500
   0.0003912600   -0.0041046800   -0.0003201900
   0.0001342400   -0.0038962400   -0.0011358500
  -0.0003065700   -0.0043020200    0.0003249900
   0.0010377800   -0.0045821900    0.0010583800
   0.0004031200   -0.0042266900    0.0000931000
   0.0002335000   -0.0041774000   -0.0000981600
   0.0001207700   -0.0042293400   -0.0000295500
  -0.0003095200   -0.0042598100    0.0003045500
  -0.0000857800   -0.0041855600    0.0002092700
   0.0001077600   -0.0042482500    0.0004863900
   0.0003531200   -0.0042168400    0.0004042100
   0.0002510600   -0.0041883300    0.0002857500
  -0.0001071800   -0.0041973100    0.0002479000
  -0.0001184900   -0.0041877800    0.0001775900
  -0.0001166200   -0.0041774000    0.0001818000
  -0.0001287700   -0.0041733500    0.0002826800
   0.0002356800   -0.0041964500    0.0002987600
   0.0003639500   -0.0041678400    0.0004113100
   0.0001300600   -0.0041231700    0.0005193300
  -0.0000865900   -0.0041796100    0.0002130500
  -0.0003257900   -0.0041042500    0.0003943600
  -0.0000466700   -0.0042023300    0.0001523600
   0.0002118300   -0.0041946300   -0.0000836600
   0.0004241400   -0.0041457700    0.0001085900
   0.0011887100   -0.0038554900    0.0012239500
  -0.0002855100   -0.0040617400    0.0004168900
  -0.0011642100   -0.0040068100    0.0001166300
   0.0003078600   -0.0042562000   -0.0003061900
   0.0001654200   -0.0041787300   -0.0001081800
   0.0002040400   -0.0041753600   -0.0000699500
   0.0003879500   -0.0040687000   -0.0003082400
   0.0029701100   -0.0012239900    0.0029629000
   0.0021324600    0.0214951400    0.0020347400
  -0.0002930200    0.0104479300    0.0007402400
  -0.0002224100    0.0100829900    0.0001415900
  -0.0001838300    0.0100768700    0.0000623100
  -0.0002637100    0.0100788800    0.0001402100
  -0.0005503700    0.0097443600    0.0007343400
   0.0008063100    0.0105432200   -0.0002319700
  -0.0005925500    0.0112967200   -0.0005326000
  -0.0004313800    0.0102236900    0.0001428700
  -0.0002076200    0.0100779500    0.0000446200
  -0.0001856000    0.0100730300    0.0001750300
  -0.0001468300    0.0101592000    0.0002657100
   0.0001622300    0.0100951000   -0.0002277200
   0.0001594500    0.0102630900   -0.0004074900
  -0.0005732800    0.0102021300   -0.0005620500
  -0.0003204900    0.0101109500   -0.0000665200
  -0.0000137500    0.0101093800    0.0000207200
   0.0001795300    0.0101382000   -0.0001373900
   0.0000714400    0.0100783100   -0.0001890900
   0.0000722000    0.0100800800   -0.0002287500
  -0.0000604100    0.0101264900   -0.0003190400
  -0.0002909300    0.0100780900   -0.0002980300
  -0.0000843800    0.0100477700   -0.0003175500
   0.0000780900    0.0100781200   -0.0002280600
   0.0001607700    0.0100690900   -0.0002649000
   0.0001830300    0.0100527700   -0.0001918900
   0.0000673000    0.0100856500   -0.0000567400
  -0.0003195000    0.0100520000   -0.0000821500
  -0.0006459700    0.0099940500   -0.0006315800
   0.0001520500    0.0099289500   -0.0004598700
   0.0008002100    0.0097240200   -0.0004766700
   0.0002715400    0.0101123100   -0.0001431000
  -0.0001342900    0.0101030000    0.0001659400
  -0.0002068600    0.0100771600    0.0000456200
  -0.0004806600    0.0099532100    0.0001300600
  -0.0010002200    0.0089841900   -0.0009320900
   0.0004416100   -0.0104539300    0.0006816500
   0.0000621200   -0.0102252100    0.0004555500
  -0.0001503700   -0.0101038200    0.0000858400
  -0.0001368300   -0.0100707400    0.0000344200
  -0.0001302400   -0.0100973800    0.0001162100
   0.0000538900   -0.0101261400    0.0001812700
   0.0002182800   -0.0101024200   -0.0001021600
   0.0000036600   -0.0100143600   -0.0002518800
  -0.0001822000   -0.0101051100   -0.0000538100
  -0.0001323000   -0.0100986800    0.0000335800
  -0.0000190000   -0.0100973200    0.0000606200
   0.0000271500   -0.0100783800    0.0001112300
   0.0000661100   -0.0100687900   -0.0001289600
   0.0000238700   -0.0100761600   -0.0001682700
  -0.0000602900   -0.0100520900   -0.0001589800
  -0.0001052500   -0.0100962900   -0.0000746500
  -0.0000155600   -0.0100825500   -0.0000377500
   0.0000506800   -0.0100826600   -0.0000887100
   0.0000655800   -0.0100842900   -0.0001454600
   0.0000590800   -0.0100766500   -0.0001040400
   0.0000100600   -0.0100835900   -0.0000524000
  -0.0001041400   -0.0100704600   -0.0000644900
  -0.0000854900   -0.0101135000   -0.0001716500
   0.0000147200   -0.0100835300   -0.0001823300
   0.0002161200   -0.0100755200   -0.0001641800
   0.0001430500   -0.0100969000    0.0000099600
  -0.0000037100   -0.0100962900    0.0000636400
  -0.0001314800   -0.0100674900    0.0000282700
  -0.0001948700   -0.0100879600   -0.0000508100
  -0.0001123400   -0.0101605400   -0.0003498800
   0.0004407500   -0.0107802900   -0.0001570700
   0.0002293300   -0.0101502900    0.0000620000
  -0.0001080700   -0.0100706700    0.0001101700
  -0.0001364900   -0.0100800400    0.0000336200
  -0.0001721300   -0.0100645800    0.0000775200
  -0.0001096200   -0.0100509200    0.0003333800
   0.0003445800    0.0100918100    0.0004776100
  -0.0002033300    0.0100355900    0.0002957000
  -0.0001536600    0.0100744800    0.0000653500
  -0.0001506300    0.0100779700    0.0000647800
  -0.0001764800    0.0100955400    0.0002926800
   0.0009409200    0.0094872200    0.0004780600
   0.0003637400    0.0090392200   -0.0007245600
  -0.0003414100    0.0099334100   -0.0001334900
  -0.0002036600    0.0100633600    0.0000361000
  -0.0001112800    0.0100734100    0.0000636300
   0.0000433200    0.0100869800    0.0000792100
   0.0002370000    0.0099308600    0.0000065800
   0.0000708000    0.0100043400   -0.0002391800
  -0.0000477500    0.0098941400   -0.0002667000
  -0.0001818100    0.0100695400   -0.0001029200
  -0.0000733000    0.0100896300    0.0000037000
   0.0000439400    0.0100626800   -0.0000034100
   0.0001955800    0.0100222400   -0.0001728300
   0.0000474300    0.0100700100   -0.0001604100
   0.0000316500    0.0100405700   -0.0001447000
  -0.0000782100    0.0100335000   -0.0001043900
  -0.0000986300    0.0101166800   -0.0001031500
   0.0000325000    0.0100970100   -0.0001435900
   0.0000444300    0.0100769600   -0.0001597700
   0.0001859800    0.0101054500   -0.0001676800
   0.0000708600    0.0100599000    0.0000030800
  -0.0000825400    0.0100442400    0.0000267000
  -0.0001708500    0.0100646700   -0.0000795100
  -0.0000736000    0.0102247900   -0.0002559800
   0.0000769400    0.0101231100   -0.0002337000
   0.0001835200    0.0100529000    0.0001244600
  -0.0000271800    0.0100304300    0.0001898800
  -0.0001245300    0.0100730000    0.0000577100
  -0.0001890700    0.0100831300    0.0000293300
  -0.0002683500    0.0101826700   -0.0000243900
   0.0004081600    0.0109215900   -0.0005934000
   0.0025701900   -0.0081339700    0.0028871700
  -0.0010606800   -0.0100167300    0.0005979800
  -0.0002468200   -0.0100839800    0.0001306100
  -0.0001625000   -0.0100659800    0.0000857000
  -0.0003741500   -0.0100670000    0.0004352900
   0.0016743900   -0.0097066800    0.0010618000
   0.0005576300   -0.0099683100   -0.0010495200
  -0.0018619900   -0.0101022800   -0.0018515900
  -0.0003738300   -0.0100790200   -0.0000873900
  -0.0001081500   -0.0100667800    0.0000865600
   0.0001865300   -0.0100408000   -0.0000720900
   0.0004775000   -0.0100807100   -0.0005510700
   0.0001502800   -0.0100859500   -0.0002769400
  -0.0000906600   -0.0100583100   -0.0003759300
  -0.0002932400   -0.0100906100   -0.0002859300
  -0.0000595400   -0.0100693100   -0.0000907400
   0.0001229100   -0.0100762000   -0.0001716500
   0.0000815600   -0.0100795200   -0.0002108600
   0.0000939300   -0.0100690100   -0.0001967800
   0.0001005100   -0.0100645600   -0.0001362700
  -0.0000965700   -0.0100691700   -0.0000572600
  -0.0002526100   -0.0100485300   -0.0002486300
  -0.0000685400   -0.0100819400   -0.0003367000
   0.0001362000   -0.0100627500   -0.0002616100
   0.0005036900   -0.0100546300   -0.0004049800
  -0.0000835600   -0.0100496000    0.0002061400
  -0.0001419100   -0.0100727900    0.0001027900
  -0.0003363100   -0.0100609400   -0.0000713200
  -0.0015649900   -0.0099900900   -0.0015472700
   0.0005214100   -0.0101663000   -0.0008987400
   0.0010315600   -0.0100733800    0.0014570700
  -0.0005064300   -0.0100636600    0.0003875400
  -0.0001756600   -0.0100876000    0.0000773400
  -0.0002324300   -0.0100693900    0.0001206600
  -0.0009228600   -0.0101134600    0.0005409300
   0.0028678000   -0.0116096500    0.0029326100

1    
 -0.0067400330669704  -0.0030698379607401  -0.0067192298034034
   0.0241051300    0.0193200300    0.0235409800
  -0.0008641200    0.0041957600    0.0007518200
  -0.0001182400    0.0041930300    0.0002052900
  -0.0001520800    0.0041785700    0.0001007700
  -0.0001090400    0.0041747800    0.0002066200
  -0.0008532600    0.0041253000    0.0007454100
   0.0008503400    0.0043722300   -0.0013011500
  -0.0047443100    0.0056275100   -0.0047573600
  -0.0005119100    0.0042820100   -0.0001123000
  -0.0001321600    0.0041802900    0.0000611700
  -0.0001410300    0.0041359200    0.0001943200
   0.0002470300    0.0042113000   -0.0004228500
   0.0002265300    0.0041952700   -0.0001569500
  -0.0001549400    0.0043525100   -0.0006399300
  -0.0005187200    0.0043477700   -0.0005475400
  -0.0001507300    0.0042039200   -0.0000658100
   0.0000394500    0.0042151600   -0.0000517600
   0.0002425500    0.0042676800   -0.0002808900
   0.0000966200    0.0041798700   -0.0001789100
   0.0000864500    0.0041794700   -0.0001692900
  -0.0000922500    0.0042309000   -0.0001861100
  -0.0001778000    0.0041848900   -0.0001594900
  -0.0000538700    0.0041461700   -0.0001878200
   0.0000860700    0.0041801400   -0.0001698900
   0.0002278000    0.0041711400   -0.0001454700
   0.0002050600    0.0041147100   -0.0001719600
  -0.0000243700    0.0041908500    0.0000236000
  -0.0001518900    0.0041676400   -0.0000494600
  -0.0004617000    0.0040565600   -0.0004795400
  -0.0001166400    0.0040302600   -0.0005346300
   0.0008475700    0.0040365200   -0.0011703800
  -0.0004242200    0.0041853100    0.0002620600
  -0.0002077700    0.0042371800    0.0002137200
  -0.0001326600    0.0041794500    0.0000615200
  -0.0004484200    0.0040915300   -0.0000925700
  -0.0041370400    0.0027580200   -0.0041349200
   0.0002941400   -0.0053587400   -0.0002961400
  -0.0004938200   -0.0049292100   -0.0001173600
  -0.0002190000   -0.0042189800    0.0000528500
  -0.0001285700   -0.0041771000    0.0000533200
  -0.0001227300   -0.0041835900    0.0001338700
   0.0000606100   -0.0041856800    0.0000943500
   0.0003661900   -0.0042198600   -0.0003277300
  -0.0000833900   -0.0040992400   -0.0001772500
  -0.0002811400   -0.0042959800   -0.0001394100
  -0.0001558100   -0.0041970800   -0.0000015100
  -0.0000516200   -0.0041872600    0.0000403600
   0.0000463800   -0.0042242100    0.0000080100
   0.0000625200   -0.0041734200   -0.0001446700
   0.0000453800   -0.0041862500   -0.0001797300
  -0.0001121500   -0.0041545700   -0.0001611400
  -0.0001469900   -0.0042069300   -0.0001016500
  -0.0000390200   -0.0041864700   -0.0000745700
   0.0001035300   -0.0041835300   -0.0001233200
   0.0000629400   -0.0041868400   -0.0001508200
   0.0001030600   -0.0041784700   -0.0001192800
  -0.0000254800   -0.0041788900   -0.0000842900
  -0.0001476600   -0.0041722000   -0.0000858000
  -0.0001276300   -0.0042110900   -0.0001735600
   0.0000474100   -0.0041757500   -0.0001769000
   0.0003716300   -0.0041349400   -0.0002888000
   0.0001010400   -0.0041613500   -0.0000184300
  -0.0001019800   -0.0042225700    0.0000743100
  -0.0001563300   -0.0041761800    0.0000081400
  -0.0002320900   -0.0041137400   -0.0001058900
  -0.0001431800   -0.0042879000   -0.0002080100
   0.0002974900   -0.0045755500    0.0000724100
  -0.0002793900   -0.0044462200    0.0003157400
  -0.0001394400   -0.0041910700    0.0001457900
  -0.0001287900   -0.0041809200    0.0000516400
  -0.0002029700   -0.0041556400    0.0000666500
  -0.0001509800   -0.0037017300    0.0001049800
   0.0004058300    0.0032919500    0.0001956300
  -0.0000964300    0.0040895600    0.0002558500
  -0.0001243700    0.0041711900    0.0000540500
  -0.0001286100    0.0041807700    0.0000544000
  -0.0001642200    0.0042391600    0.0002588500
   0.0001714400    0.0038024200    0.0001974500
   0.0000714000    0.0036269600    0.0000896000
  -0.0001810100    0.0041119200   -0.0001145500
  -0.0001459400    0.0041561200    0.0000397400
  -0.0001234000    0.0041710300    0.0000697700
  -0.0000337600    0.0042015800    0.0000723500
   0.0000700600    0.0039597300    0.0002413300
   0.0000798100    0.0041256700   -0.0001251800
  -0.0000061400    0.0040881900   -0.0000915200
  -0.0002332300    0.0041711200   -0.0001241000
  -0.0001285000    0.0041854400   -0.0000134900
   0.0000281700    0.0041888200   -0.0000109600
   0.0001308700    0.0041465900   -0.0000648900
   0.0000673500    0.0041652300   -0.0001213600
   0.0000063300    0.0041473800   -0.0001040700
  -0.0000887200    0.0041405700   -0.0000990000
  -0.0001191100    0.0042079000   -0.0000988800
  -0.0000154000    0.0041957200   -0.0001045700
   0.0000582800    0.0041854100   -0.0001215500
   0.0001411900    0.0041965800   -0.0000963800
   0.0000740000    0.0041509500   -0.0000395000
  -0.0001235000    0.0041365600    0.0000031200
  -0.0002410700    0.0041505000   -0.0001088700
  -0.0000519600    0.0042533500   -0.0001199100
   0.0000715500    0.0042175300   -0.0001571900
   0.0002216300    0.0041582400   -0.0000003400
   0.0000053000    0.0040801100    0.0000880100
  -0.0001168300    0.0041693300    0.0000633000
  -0.0001530900    0.0041845400    0.0000342700
  -0.0002227600    0.0041697500   -0.0001004300
  -0.0000781900    0.0044961600   -0.0001502100
  -0.0017162600   -0.0016493300   -0.0017542500
  -0.0003036300   -0.0040639300    0.0003243400
  -0.0002023400   -0.0041685100    0.0000733800
  -0.0001664000   -0.0041717600    0.0001116700
  -0.0003932600   -0.0042515200    0.0003221600
  -0.0001141800   -0.0044483900    0.0011180200
   0.0003045000   -0.0040545200   -0.0003269500
  -0.0010318200   -0.0037787700   -0.0010534500
  -0.0004019800   -0.0041295600   -0.0000937300
  -0.0002336200   -0.0041782300    0.0000984400
  -0.0001120400   -0.0041244700    0.0000195700
   0.0003062800   -0.0040971700   -0.0003042100
   0.0000852500   -0.0041707300   -0.0002086700
  -0.0001075700   -0.0041086900   -0.0004848900
  -0.0003508000   -0.0041395200   -0.0004011900
  -0.0002482000   -0.0041677700   -0.0002887300
   0.0001060500   -0.0041587100   -0.0002480700
   0.0001175700   -0.0041685200   -0.0001774400
   0.0001171300   -0.0041786300   -0.0001807500
   0.0001296800   -0.0041822800   -0.0002812900
  -0.0002380600   -0.0041595900   -0.0002944600
  -0.0003655000   -0.0041877100   -0.0004128200
  -0.0001305200   -0.0042330200   -0.0005199500
   0.0000867700   -0.0041764400   -0.0002124400
   0.0003283100   -0.0042522400   -0.0003954200
   0.0000378700   -0.0041513200   -0.0001427300
  -0.0002110800   -0.0041610600    0.0000832900
  -0.0004252100   -0.0042101100   -0.0001079600
  -0.0011981900   -0.0045029600   -0.0012320800
   0.0002872400   -0.0042946000   -0.0004160600
   0.0011468000   -0.0043373400   -0.0000961600
  -0.0003067500   -0.0041000800    0.0003029900
  -0.0001651700   -0.0041767900    0.0001072200
  -0.0002040100   -0.0041802700    0.0000704500
  -0.0003876600   -0.0042875900    0.0003097400
  -0.0030389700   -0.0071745000   -0.0030284200
  -0.0020895700   -0.0014738300   -0.0019941100
   0.0002970300    0.0097068200   -0.0007345400
   0.0002223300    0.0100720300   -0.0001402300
   0.0001835500    0.0100777200   -0.0000623100
   0.0002637500    0.0100759000   -0.0001416000
   0.0005460600    0.0104109200   -0.0007403700
  -0.0008004800    0.0096119100    0.0002369200
   0.0005931900    0.0088651900    0.0005344600
   0.0004300200    0.0099321400   -0.0001410500
   0.0002067300    0.0100770900   -0.0000443900
   0.0001850700    0.0100815300   -0.0001768800
   0.0001408500    0.0099898500   -0.0002577800
  -0.0001608400    0.0100595500    0.0002279000
  -0.0001582000    0.0098924000    0.0004064400
   0.0005692500    0.0099539100    0.0005590900
   0.0003194300    0.0100438800    0.0000656400
   0.0000100500    0.0100454900   -0.0000162800
  -0.0001767600    0.0100165100    0.0001385100
  -0.0000714500    0.0100762000    0.0001884100
  -0.0000725400    0.0100743800    0.0002273900
   0.0000595600    0.0100285800    0.0003169700
   0.0002908300    0.0100771700    0.0002974600
   0.0000853900    0.0101074400    0.0003184400
  -0.0000777800    0.0100769300    0.0002280400
  -0.0001622700    0.0100859000    0.0002639000
  -0.0001855800    0.0101017700    0.0001901500
  -0.0000634000    0.0100687000    0.0000517100
   0.0003204200    0.0101026100    0.0000824800
   0.0006510700    0.0101614300    0.0006349600
  -0.0001532900    0.0102267900    0.0004602100
  -0.0008065300    0.0104306100    0.0004714900
  -0.0002639300    0.0100363400    0.0001366100
   0.0001349800    0.0100513000   -0.0001643300
   0.0002074900    0.0100773800   -0.0000463300
   0.0004821300    0.0102017700   -0.0001321600
   0.0010087200    0.0111703900    0.0009382000
  -0.0004371400   -0.0097029300   -0.0006757000
  -0.0000633600   -0.0099286800   -0.0004530600
   0.0001498300   -0.0100504600   -0.0000841400
   0.0001362000   -0.0100832900   -0.0000338300
   0.0001299800   -0.0100563400   -0.0001166700
  -0.0000565900   -0.0100266700   -0.0001811000
  -0.0002159200   -0.0100510700    0.0001032100
  -0.0000031000   -0.0101391400    0.0002516400
   0.0001802500   -0.0100489800    0.0000543000
   0.0001312200   -0.0100554800   -0.0000330100
   0.0000177000   -0.0100568100   -0.0000597200
  -0.0000271500   -0.0100754300   -0.0001080000
  -0.0000655500   -0.0100847800    0.0001291300
  -0.0000237700   -0.0100775100    0.0001677700
   0.0000596300   -0.0101016700    0.0001581200
   0.0001039100   -0.0100582100    0.0000747500
   0.0000156300   -0.0100720000    0.0000391900
  -0.0000499900   -0.0100712500    0.0000896100
  -0.0000660900   -0.0100695600    0.0001449600
  -0.0000597000   -0.0100770300    0.0001030600
  -0.0000100700   -0.0100708800    0.0000512000
   0.0001050100   -0.0100836700    0.0000645800
   0.0000856700   -0.0100406600    0.0001720200
  -0.0000147900   -0.0100708800    0.0001824500
  -0.0002180600   -0.0100785300    0.0001630100
  -0.0001420800   -0.0100575300   -0.0000128200
   0.0000046800   -0.0100580000   -0.0000634900
   0.0001320300   -0.0100862600   -0.0000283700
   0.0001958900   -0.0100653400    0.0000505500
   0.0001117600   -0.0099934100    0.0003500500
  -0.0004379500   -0.0093763100    0.0001535300
  -0.0002271600   -0.0100036000   -0.0000595100
   0.0001079500   -0.0100831000   -0.0001087800
   0.0001365700   -0.0100737100   -0.0000334800
   0.0001722200   -0.0100893100   -0.0000784500
   0.0001108700   -0.0101014400   -0.0003343400
  -0.0003445900    0.0100706200   -0.0004801900
   0.0002028300    0.0101176200   -0.0002924400
   0.0001531200    0.0100791300   -0.0000647800
   0.0001504400    0.0100755400   -0.0000653500
   0.0001759500    0.0100581300   -0.0002954000
  -0.0009395500    0.0106650500   -0.0004798100
  -0.0003564100    0.0110923300    0.0007156000
   0.0003392900    0.0102183500    0.0001339500
   0.0002022600    0.0100902200   -0.0000353000
   0.0001104900    0.0100804400   -0.0000637100
  -0.0000456600    0.0100668200   -0.0000782600
  -0.0002338000    0.0102273600   -0.0000008800
  -0.0000688900    0.0101476400    0.0002381700
   0.0000468800    0.0102560700    0.0002637300
   0.0001802200    0.0100839300    0.0001021800
   0.0000722700    0.0100641000   -0.0000034500
  -0.0000439800    0.0100923100    0.0000054100
  -0.0001935100    0.0101302900    0.0001722700
  -0.0000476400    0.0100831000    0.0001590100
  -0.0000320500    0.0101124400    0.0001427300
   0.0000778700    0.0101201600    0.0001024800
   0.0000985300    0.0100374300    0.0001037000
  -0.0000318600    0.0100568600    0.0001438200
  -0.0000440500    0.0100765000    0.0001596200
  -0.0001873900    0.0100477400    0.0001667300
  -0.0000705400    0.0100948900   -0.0000055900
   0.0000828400    0.0101088900   -0.0000271900
   0.0001713800    0.0100892800    0.0000788100
   0.0000745400    0.0099273500    0.0002569200
  -0.0000784100    0.0100301700    0.0002329500
  -0.0001847500    0.0101056000   -0.0001307000
   0.0000280700    0.0101227600   -0.0001887700
   0.0001246400    0.0100801100   -0.0000578100
   0.0001894000    0.0100702700   -0.0000302100
   0.0002681400    0.0099698500    0.0000219000
  -0.0004144500    0.0092180400    0.0005989700
  -0.0022094600   -0.0119901300   -0.0025200100
   0.0010534200   -0.0101364800   -0.0005931000
   0.0002452900   -0.0100698000   -0.0001287500
   0.0001619000   -0.0100880100   -0.0000855900
   0.0003724600   -0.0100867200   -0.0004402600
  -0.0016829900   -0.0104401400   -0.0010511700
  -0.0005536700   -0.0101837200    0.0010434500
   0.0018381600   -0.0100521100    0.0018295100
   0.0003702600   -0.0100746900    0.0000872800
   0.0001066600   -0.0100871000   -0.0000862100
  -0.0001950900   -0.0101128200    0.0000819300
  -0.0004689600   -0.0100727400    0.0005500900
  -0.0001490800   -0.0100672000    0.0002756600
   0.0000895000   -0.0100945000    0.0003726900
   0.0002899300   -0.0100631100    0.0002829800
   0.0000583500   -0.0100843200    0.0000921300
  -0.0001213800   -0.0100779600    0.0001727200
  -0.0000806500   -0.0100738600    0.0002109500
  -0.0000946900   -0.0100843900    0.0001957400
  -0.0001011800   -0.0100892500    0.0001341000
   0.0000975700   -0.0100840800    0.0000553700
   0.0002542800   -0.0101059500    0.0002500100
   0.0000690900   -0.0100722200    0.0003379200
  -0.0001367400   -0.0100911200    0.0002616900
  -0.0005099600   -0.0100989200    0.0004028900
   0.0000926600   -0.0101034000   -0.0002151500
   0.0001425600   -0.0100803500   -0.0001017900
   0.0003381100   -0.0100930600    0.0000715100
   0.0015771900   -0.0101660300    0.0015584000
  -0.0005226500   -0.0099870400    0.0009008700
  -0.0010188200   -0.0100785300   -0.0014628400
   0.0005052400   -0.0100896600   -0.0003798800
   0.0001755500   -0.0100658400   -0.0000765200
   0.0002328600   -0.0100839500   -0.0001212800
   0.0009261900   -0.0100397100   -0.0005419200
  -0.0032182100   -0.0084912400   -0.0032806700

145  
  0.0067400330669704   0.0030698379607401   0.0067192298034034
   0.0020952300    0.0157233500    0.0019980500
  -0.0005841600    0.0039163400    0.0007400400
  -0.0002436500    0.0041345600    0.0001411500
  -0.0001838800    0.0041760600    0.0000622100
  -0.0002423700    0.0042254600    0.0001402000
  -0.0002603200    0.0044723300    0.0007337200
   0.0008064600    0.0039704700   -0.0005446600
  -0.0010207800    0.0033468600   -0.0010367100
  -0.0003584400    0.0041194800   -0.0000232700
  -0.0002070200    0.0041780600    0.0000443800
  -0.0002571100    0.0042311200    0.0002728600
   0.0002806800    0.0042533900   -0.0001703500
   0.0001622700    0.0041428900   -0.0002527100
   0.0000065000    0.0041307800   -0.0003598100
  -0.0006004900    0.0040325700   -0.0006530100
  -0.0003199000    0.0041627900   -0.0000889700
   0.0000161000    0.0042027500   -0.0000134900
   0.0003317900    0.0041448700   -0.0003355400
   0.0000715300    0.0041797000   -0.0001886900
   0.0000748200    0.0041853700   -0.0002271400
  -0.0000899300    0.0041590300   -0.0003173600
  -0.0002906400    0.0041768900   -0.0002972300
  -0.0000550200    0.0042140800   -0.0003177400
   0.0000754200    0.0041738600   -0.0002279100
   0.0001613700    0.0042230300   -0.0002386200
   0.0002735400    0.0042468900   -0.0002369200
  -0.0000221500    0.0041921800    0.0000375000
  -0.0003198800    0.0041984900   -0.0000591100
  -0.0005590600    0.0043616300   -0.0005992700
   0.0000623600    0.0042613500   -0.0002630200
   0.0007997700    0.0044947300   -0.0001649300
  -0.0002245100    0.0042282600    0.0003599600
  -0.0003256800    0.0041434400    0.0003314200
  -0.0002075100    0.0041749500    0.0000459100
  -0.0002914200    0.0042550200    0.0000332400
  -0.0005058700    0.0051293800   -0.0004971500
   0.0004375300   -0.0038066800    0.0003337300
   0.0001749700   -0.0039160600    0.0001586700
  -0.0001567500   -0.0041519500    0.0000681700
  -0.0001363500   -0.0041742900    0.0000356600
  -0.0001231800   -0.0042004100    0.0001097800
  -0.0000545800   -0.0042968400    0.0003226100
   0.0002180800   -0.0041231300   -0.0001402800
  -0.0001504000   -0.0039539100   -0.0001724600